8
	Energy:       0.2779244
Cl         1.06834       -0.05281        0.04407
C          2.84964       -0.04824        0.05036
C          3.36756        0.79718        1.20543
Br         5.30479        0.80258        1.21285
H          3.21103        0.36671       -0.91424
H          3.21101       -1.09315        0.15427
H          3.00728        0.38254        2.17072
H          3.00730        1.84266        1.10202
